============================== echo of input deck ==============================
echo

start h2_scf_test1
title "H2 in STO-3G basis set"

scratch_dir /scratch/owengray/h2_scf_test1/

geometry units au
symmetry d2
	H	0	0.5	0
end
basis
	H library STO-3G
end

charge 0
scf
	rohf
	vectors output h2_scf_test.movecs
end
task scf optimize
task scf energy

tddft
	cis
	print debug
	notriplet
	civecs
end
TASK TDDFT energy

dplot
	root 1
	limitxyz
		-2 2 50
		-2 2 50
		-2 2 50
		gaussian
		output root1.cube
end
task dplot
================================================================================

         Total SCF energy =     -1.065999462147

 Vector    1  Occ=2.000000D+00  E=-6.757802D-01  Symmetry=a1

 Vector    2  Occ=0.000000D+00  E= 9.418116D-01  Symmetry=b2

@ Step       Energy      Delta E   Gmax     Grms     Xrms     Xmax   Walltime
@ ---- ---------------- -------- -------- -------- -------- -------- --------
@    0      -1.06599946  0.0D+00  0.36504  0.21076  0.00000  0.00000      0.1
         Total SCF energy =     -1.115885620662

 Vector    1  Occ=2.000000D+00  E=-5.729291D-01  Symmetry=a1

 Vector    2  Occ=0.000000D+00  E= 6.571862D-01  Symmetry=b2

         Total SCF energy =     -1.117182822555

 Vector    1  Occ=2.000000D+00  E=-5.977262D-01  Symmetry=a1

 Vector    2  Occ=0.000000D+00  E= 7.200467D-01  Symmetry=b2

@    1      -1.11718282 -5.1D-02  0.01994  0.01151  0.09033  0.15646      0.2
         Total SCF energy =     -1.117441136170

 Vector    1  Occ=2.000000D+00  E=-5.935956D-01  Symmetry=a1

 Vector    2  Occ=0.000000D+00  E= 7.093327D-01  Symmetry=b2

         Total SCF energy =     -1.117505553521

 Vector    1  Occ=2.000000D+00  E=-5.904607D-01  Symmetry=a1

 Vector    2  Occ=0.000000D+00  E= 7.012676D-01  Symmetry=b2

@    2      -1.11750555 -3.2D-04  0.00062  0.00036  0.00921  0.01596      0.2
         Total SCF energy =     -1.117505884237

 Vector    1  Occ=2.000000D+00  E=-5.902307D-01  Symmetry=a1

 Vector    2  Occ=0.000000D+00  E= 7.006781D-01  Symmetry=b2

         Total SCF energy =     -1.117505884237
@    3      -1.11750588 -3.3D-07  0.00003  0.00002  0.00029  0.00051      0.2
@    3      -1.11750588 -3.3D-07  0.00003  0.00002  0.00029  0.00051      0.2

 Output coordinates in a.u. (scale by  1.000000000 to convert to a.u.)

  No.       Tag          Charge          X              Y              Z
 ---- ---------------- ---------- -------------- -------------- --------------
    1 H                    1.0000     0.00000000     0.67293182     0.00000000
    2 H                    1.0000     0.00000000    -0.67293182     0.00000000

         Total SCF energy =     -1.117505884237
         Total DFT energy =       -1.120684231014

                       DFT Final Molecular Orbital Analysis
                       ------------------------------------

 Vector    1  Occ=2.000000D+00  E=-3.565624D-01  Symmetry=a1

 Vector    2  Occ=0.000000D+00  E= 4.276113D-01  Symmetry=b2

     Multipole analysis of the density
     ---------------------------------

     L   x y z        total         alpha         beta         nuclear
     -   - - -        -----         -----         ----         -------
     0   0 0 0     -0.000000     -1.000000     -1.000000      2.000000

     1   1 0 0      0.000000      0.000000      0.000000      0.000000
     1   0 1 0      0.000000      0.000000      0.000000      0.000000
     1   0 0 1      0.000000      0.000000      0.000000      0.000000

     2   2 0 0     -1.370229     -0.685114     -0.685114      0.000000
     2   1 1 0      0.000000      0.000000      0.000000      0.000000
     2   1 0 1      0.000000      0.000000      0.000000      0.000000
     2   0 2 0     -1.076143     -0.990909     -0.990909      0.905674
     2   0 1 1      0.000000      0.000000      0.000000      0.000000

  Root   1 singlet b2             1.003617929 a.u.               27.3098 eV
     Dipole Oscillator Strength                         1.12175
 Total times  cpu:        0.3s     wall:        0.5s
