============================== echo of input deck ==============================
echo

start h2o
title "Water in STO-3G basis set"

scratch_dir /scratch/owengray/water_scf_test2/

geometry units au
	O	0.00000000	0.00000000	0.00000000
	H	0.00000000	1.43042809	-1.10715266
	H	0.00000000	-1.43042809	-1.10715266
end
basis
	H library STO-3G
	O library STO-3G
end
dft
	vectors output h2o.movecs
	XC HFexch
end
TDDFT
 CIS
 CIVECS output h2o.mocivecs
END
TASK TDDFT energy
================================================================================

 Output coordinates in a.u. (scale by  1.000000000 to convert to a.u.)

  No.       Tag          Charge          X              Y              Z
 ---- ---------------- ---------- -------------- -------------- --------------
    1 O                    8.0000     0.00000000     0.00000000     0.22143053
    2 H                    1.0000    -1.43042809     0.00000000    -0.88572213
    3 H                    1.0000     1.43042809     0.00000000    -0.88572213

         Total DFT energy =      -74.962927938207

                       DFT Final Molecular Orbital Analysis
                       ------------------------------------

 Vector    1  Occ=2.000000D+00  E=-2.024174D+01  Symmetry=a1

 Vector    2  Occ=2.000000D+00  E=-1.268410D+00  Symmetry=a1

 Vector    3  Occ=2.000000D+00  E=-6.179355D-01  Symmetry=b1

 Vector    4  Occ=2.000000D+00  E=-4.529942D-01  Symmetry=a1

 Vector    5  Occ=2.000000D+00  E=-3.912446D-01  Symmetry=b2

 Vector    6  Occ=0.000000D+00  E= 6.056752D-01  Symmetry=a1

 Vector    7  Occ=0.000000D+00  E= 7.424017D-01  Symmetry=b1

     Multipole analysis of the density
     ---------------------------------

     L   x y z        total         alpha         beta         nuclear
     -   - - -        -----         -----         ----         -------
     0   0 0 0     -0.000000     -5.000000     -5.000000     10.000000

     1   1 0 0      0.000000      0.000000      0.000000      0.000000
     1   0 1 0     -0.000000     -0.000000     -0.000000      0.000000
     1   0 0 1     -0.678981     -0.339491     -0.339491      0.000000

     2   2 0 0     -3.239721     -3.665985     -3.665985      4.092249
     2   1 1 0      0.000000      0.000000      0.000000      0.000000
     2   1 0 1     -0.000000     -0.000000     -0.000000      0.000000
     2   0 2 0     -4.530981     -2.265491     -2.265491      0.000000
     2   0 1 1      0.000000      0.000000      0.000000      0.000000

  Root   1 singlet b2             0.485180479 a.u.               13.2024 eV
     Dipole Oscillator Strength                         0.00355
  Root   1 triplet b2             0.407963330 a.u.               11.1013 eV
 Total times  cpu:        0.1s     wall:        0.2s
