============================== echo of input deck ==============================
echo

start water_TDC_13
title "water TDC calculation number 13 in STO-3G basis set"
scratch_dir /scratch/owengray/water_TDC_13/
geometry units au noautoz nocenter
symmetry c1
	O	0.0	0	0
	H	0.758602	0	0.504284
	H	0.758602	0	-0.504284
end
basis
	H library STO-3G
	O library STO-3G
end
charge 0
scf
	rohf
	vectors output water_TDC_13.movecs
end
task scf optimize
dft
	xc bhlyp
end
task dft optimize
tddft
	cis
	print debug
	notriplet
	civecs
	grad
		root 1
	end
end
task tddft energy
dplot
	root 1
	limitxyz
		-1.0	1.758602	100
		-1	1	100
		-1.504284	1.504284	100
		gaussian
		output water_TDC_13_root1.cube
end
task dplot
================================================================================

         Total SCF energy =    -72.638773405844
@ Step       Energy      Delta E   Gmax     Grms     Xrms     Xmax   Walltime
@ ---- ---------------- -------- -------- -------- -------- -------- --------
@    0     -72.63877341  0.0D+00  6.43342  2.99375  0.00000  0.00000      0.2
         Total SCF energy =    -74.036980690246
         Total SCF energy =    -74.115456798722
@    1     -74.11545680 -1.5D+00  1.49184  0.90065  0.14468  0.34305      0.3
         Total SCF energy =    -74.574733698087
         Total SCF energy =    -74.739899872785
@    2     -74.73989987 -6.2D-01  0.53577  0.30570  0.17761  0.37669      0.4
         Total SCF energy =    -74.868064991900
         Total SCF energy =    -74.936845516252

 Vector    5  Occ=2.000000D+00  E=-4.039561D-01

 Vector    6  Occ=0.000000D+00  E= 6.329813D-01

 Vector    7  Occ=0.000000D+00  E= 7.076625D-01

@    3     -74.93684552 -2.0D-01  0.11072  0.05352  0.16139  0.33892      0.5
         Total SCF energy =    -74.957364012998

 Vector    2  Occ=2.000000D+00  E=-1.275089D+00

 Vector    3  Occ=2.000000D+00  E=-5.724160D-01

 Vector    4  Occ=2.000000D+00  E=-4.895302D-01

 Vector    5  Occ=2.000000D+00  E=-3.995565D-01

 Vector    6  Occ=0.000000D+00  E= 6.018380D-01

 Vector    7  Occ=0.000000D+00  E= 6.751904D-01

         Total SCF energy =    -74.962661072913

 Vector    2  Occ=2.000000D+00  E=-1.255843D+00

 Vector    3  Occ=2.000000D+00  E=-5.699001D-01

 Vector    4  Occ=2.000000D+00  E=-4.746040D-01

 Vector    5  Occ=2.000000D+00  E=-3.961150D-01

 Vector    6  Occ=0.000000D+00  E= 5.727013D-01

 Vector    7  Occ=0.000000D+00  E= 6.527823D-01

@    4     -74.96266107 -2.6D-02  0.05280  0.02158  0.11023  0.23215      0.6
         Total SCF energy =    -74.963925405817

 Vector    2  Occ=2.000000D+00  E=-1.253539D+00

 Vector    3  Occ=2.000000D+00  E=-5.741334D-01

 Vector    4  Occ=2.000000D+00  E=-4.695674D-01

 Vector    5  Occ=2.000000D+00  E=-3.949861D-01

 Vector    6  Occ=0.000000D+00  E= 5.701282D-01

 Vector    7  Occ=0.000000D+00  E= 6.571754D-01

         Total SCF energy =    -74.964858066883

 Vector    2  Occ=2.000000D+00  E=-1.248663D+00

 Vector    3  Occ=2.000000D+00  E=-5.808494D-01

 Vector    4  Occ=2.000000D+00  E=-4.599450D-01

 Vector    5  Occ=2.000000D+00  E=-3.925284D-01

 Vector    6  Occ=0.000000D+00  E= 5.631693D-01

 Vector    7  Occ=0.000000D+00  E= 6.650271D-01

@    5     -74.96485807 -2.2D-03  0.03368  0.01584  0.04121  0.07547      0.6
         Total SCF energy =    -74.965633342113

 Vector    2  Occ=2.000000D+00  E=-1.253063D+00

 Vector    3  Occ=2.000000D+00  E=-5.872429D-01

 Vector    4  Occ=2.000000D+00  E=-4.599258D-01

 Vector    5  Occ=2.000000D+00  E=-3.925681D-01

 Vector    6  Occ=0.000000D+00  E= 5.724353D-01

 Vector    7  Occ=0.000000D+00  E= 6.786124D-01

         Total SCF energy =    -74.965899702438

 Vector    2  Occ=2.000000D+00  E=-1.257941D+00

 Vector    3  Occ=2.000000D+00  E=-5.942655D-01

 Vector    4  Occ=2.000000D+00  E=-4.598310D-01

 Vector    5  Occ=2.000000D+00  E=-3.926577D-01

 Vector    6  Occ=0.000000D+00  E= 5.825695D-01

 Vector    7  Occ=0.000000D+00  E= 6.935920D-01

@    6     -74.96589970 -1.0D-03  0.00115  0.00060  0.01502  0.02942      0.7
         Total SCF energy =    -74.965901187085

 Vector    2  Occ=2.000000D+00  E=-1.257527D+00

 Vector    3  Occ=2.000000D+00  E=-5.938288D-01

 Vector    4  Occ=2.000000D+00  E=-4.597262D-01

 Vector    5  Occ=2.000000D+00  E=-3.926155D-01

 Vector    6  Occ=0.000000D+00  E= 5.817484D-01

 Vector    7  Occ=0.000000D+00  E= 6.926162D-01

         Total SCF energy =    -74.965901187085
@    7     -74.96590119 -1.5D-06  0.00007  0.00004  0.00065  0.00125      0.7
@    7     -74.96590119 -1.5D-06  0.00007  0.00004  0.00065  0.00125      0.7
         Total DFT energy =      -75.295086880674

 Vector    1  Occ=2.000000D+00  E=-1.939118D+01

 Vector    2  Occ=2.000000D+00  E=-1.059211D+00

 Vector    3  Occ=2.000000D+00  E=-4.963082D-01

 Vector    4  Occ=2.000000D+00  E=-3.347273D-01

 Vector    5  Occ=2.000000D+00  E=-2.478495D-01

 Vector    6  Occ=0.000000D+00  E= 4.170730D-01

 Vector    7  Occ=0.000000D+00  E= 5.189171D-01

@ Step       Energy      Delta E   Gmax     Grms     Xrms     Xmax   Walltime
@ ---- ---------------- -------- -------- -------- -------- -------- --------
@    0     -75.29508688  0.0D+00  0.02835  0.01305  0.00000  0.00000      0.9
         Total DFT energy =      -75.295797486648

 Vector    1  Occ=2.000000D+00  E=-1.939480D+01

 Vector    2  Occ=2.000000D+00  E=-1.052990D+00

 Vector    3  Occ=2.000000D+00  E=-4.869063D-01

 Vector    4  Occ=2.000000D+00  E=-3.378908D-01

 Vector    5  Occ=2.000000D+00  E=-2.479898D-01

 Vector    6  Occ=0.000000D+00  E= 4.038891D-01

 Vector    7  Occ=0.000000D+00  E= 4.986029D-01

         Total DFT energy =    -75.295797486648
@    1     -75.29579749 -7.1D-04  0.00278  0.00123  0.01118  0.02483      1.0
         Total DFT energy =      -75.295804341359

 Vector    1  Occ=2.000000D+00  E=-1.939524D+01

 Vector    2  Occ=2.000000D+00  E=-1.052453D+00

 Vector    3  Occ=2.000000D+00  E=-4.858459D-01

 Vector    4  Occ=2.000000D+00  E=-3.383854D-01

 Vector    5  Occ=2.000000D+00  E=-2.480507D-01

 Vector    6  Occ=0.000000D+00  E= 4.026728D-01

 Vector    7  Occ=0.000000D+00  E= 4.964599D-01

         Total DFT energy =    -75.295804341359
@    2     -75.29580434 -6.9D-06  0.00009  0.00004  0.00127  0.00310      1.1
         Total DFT energy =      -75.295804348499

 Vector    1  Occ=2.000000D+00  E=-1.939526D+01

 Vector    2  Occ=2.000000D+00  E=-1.052434D+00

 Vector    3  Occ=2.000000D+00  E=-4.858140D-01

 Vector    4  Occ=2.000000D+00  E=-3.383995D-01

 Vector    5  Occ=2.000000D+00  E=-2.480540D-01

 Vector    6  Occ=0.000000D+00  E= 4.026271D-01

 Vector    7  Occ=0.000000D+00  E= 4.963898D-01

         Total DFT energy =    -75.295804348499
@    3     -75.29580435 -7.1D-09  0.00000  0.00000  0.00004  0.00009      1.1
@    3     -75.29580435 -7.1D-09  0.00000  0.00000  0.00004  0.00009      1.1

 Output coordinates in a.u. (scale by  1.000000000 to convert to a.u.)

  No.       Tag          Charge          X              Y              Z
 ---- ---------------- ---------- -------------- -------------- --------------
    1 O                    8.0000    -0.32332912    -0.00000000     0.00000024
    2 H                    1.0000     0.92026696     0.00000000     1.44284282
    3 H                    1.0000     0.92026616     0.00000000    -1.44284305

         Total DFT energy =      -75.295804348691

                       DFT Final Molecular Orbital Analysis
                       ------------------------------------

 Vector    1  Occ=2.000000D+00  E=-1.939525D+01

 Vector    2  Occ=2.000000D+00  E=-1.052433D+00

 Vector    3  Occ=2.000000D+00  E=-4.858131D-01

 Vector    4  Occ=2.000000D+00  E=-3.383973D-01

 Vector    5  Occ=2.000000D+00  E=-2.480517D-01

 Vector    6  Occ=0.000000D+00  E= 4.026284D-01

 Vector    7  Occ=0.000000D+00  E= 4.963904D-01

     Multipole analysis of the density
     ---------------------------------

     L   x y z        total         alpha         beta         nuclear
     -   - - -        -----         -----         ----         -------
     0   0 0 0     -0.000000     -5.000000     -5.000000     10.000000

     1   1 0 0      0.657377      0.701738      0.701738     -0.746100
     1   0 1 0     -0.000000     -0.000000     -0.000000     -0.000000
     1   0 0 1     -0.000000     -0.000001     -0.000001      0.000002

     2   2 0 0     -4.036358     -3.283237     -3.283237      2.530115
     2   1 1 0      0.000000      0.000000      0.000000      0.000000
     2   1 0 1      0.000000     -0.000000     -0.000000      0.000000
     2   0 2 0     -4.566254     -2.283127     -2.283127      0.000000
     2   0 1 1      0.000000      0.000000      0.000000     -0.000000

  Root   1 singlet a              0.411221804 a.u.               11.1899 eV
     Dipole Oscillator Strength                         0.00221
 Total times  cpu:        1.8s     wall:        3.5s
