============================== echo of input deck ==============================
echo

start h2o
title "Water in STO-3G basis set"

scratch_dir /scratch/owengray/water_scf_test4/

geometry units au
	O	0.00000000	0.00000000	0.00000000
	H	0.00000000	1.43042809	-1.10715266
	H	0.00000000	-1.43042809	-1.10715266
end
basis
	H library STO-3G
	O library STO-3G
end

charge 0
scf
	rohf
	vectors output h2o.movecs
end
task scf energy

tddft
	cis
	print debug
	notriplet
	civecs
end
TASK TDDFT energy

dplot
	root 1
	limitxyz
		-2 2 50
		-2 2 50
		-2 2 50
		gaussian
		output root1.cube
end
task dplot
================================================================================

 Output coordinates in a.u. (scale by  1.000000000 to convert to a.u.)

  No.       Tag          Charge          X              Y              Z
 ---- ---------------- ---------- -------------- -------------- --------------
    1 O                    8.0000     0.00000000     0.00000000     0.22143053
    2 H                    1.0000    -1.43042809     0.00000000    -0.88572213
    3 H                    1.0000     1.43042809     0.00000000    -0.88572213

         Total SCF energy =    -74.962927937888

 Vector    2  Occ=2.000000D+00  E=-1.268407D+00  Symmetry=a1

 Vector    3  Occ=2.000000D+00  E=-6.179357D-01  Symmetry=b1

 Vector    4  Occ=2.000000D+00  E=-4.529926D-01  Symmetry=a1

 Vector    5  Occ=2.000000D+00  E=-3.912415D-01  Symmetry=b2

 Vector    6  Occ=0.000000D+00  E= 6.056757D-01  Symmetry=a1

 Vector    7  Occ=0.000000D+00  E= 7.424026D-01  Symmetry=b1

         Total DFT energy =      -74.731861949106

                       DFT Final Molecular Orbital Analysis
                       ------------------------------------

 Vector    1  Occ=2.000000D+00  E=-1.827077D+01  Symmetry=a1

 Vector    2  Occ=2.000000D+00  E=-8.311097D-01  Symmetry=a1

 Vector    3  Occ=2.000000D+00  E=-3.832578D-01  Symmetry=b1

 Vector    4  Occ=2.000000D+00  E=-1.492993D-01  Symmetry=a1

 Vector    5  Occ=2.000000D+00  E=-5.740620D-02  Symmetry=b2

 Vector    6  Occ=0.000000D+00  E= 3.169992D-01  Symmetry=a1

 Vector    7  Occ=0.000000D+00  E= 4.263576D-01  Symmetry=b1

     Multipole analysis of the density
     ---------------------------------

     L   x y z        total         alpha         beta         nuclear
     -   - - -        -----         -----         ----         -------
     0   0 0 0     -0.000000     -5.000000     -5.000000     10.000000

     1   1 0 0      0.000000      0.000000      0.000000      0.000000
     1   0 1 0      0.000000      0.000000      0.000000      0.000000
     1   0 0 1     -0.680424     -0.340212     -0.340212      0.000000

     2   2 0 0     -3.215740     -3.653994     -3.653994      4.092249
     2   1 1 0      0.000000      0.000000      0.000000      0.000000
     2   1 0 1     -0.000000     -0.000000     -0.000000      0.000000
     2   0 2 0     -4.528981     -2.264490     -2.264490      0.000000
     2   0 1 1     -0.000000     -0.000000     -0.000000      0.000000

  Root   1 singlet b2             0.422555510 a.u.               11.4983 eV
     Dipole Oscillator Strength                         0.00263
 Total times  cpu:        0.3s     wall:        0.5s
