============================== echo of input deck ==============================
echo

start water_TDC_1
title "water TDC calculation number 1 in STO-3G basis set"
scratch_dir /scratch/owengray/water_TDC_1/
permanent_dir /scratch/owengray/water_TDC_1/
geometry units au noautoz nocenter
symmetry c1
	O	0.0	0.0	0.0
	H	0.758602	0.0	0.504284
	H	0.758602	0.0	-0.504284
end
basis
	H library STO-3G
	O library STO-3G
end
driver
	clear
	maxiter 1000
	xyz final
end
charge 0
dft
	xc b3lyp
	iterations 100
	print "final vectors analysis"
	vectors output water_TDC_1.movecs
end
task dft optimize
tddft
	nroots 10
	cis
	print debug
	notriplet
	civecs
end
task tddft energy
dplot
	vectors water_TDC_1.movecs
	civecs water_TDC_1.civecs_singlet
	root 1
	limitxyz
		-5.0	5.6	54
		-5.0	5.0	51
		-5.4	5.4	55
		gaussian
		output water_TDC_1_root1.cube
end
task dplot
dplot
	vectors water_TDC_1.movecs
	civecs water_TDC_1.civecs_singlet
	root 2
	limitxyz
		-5.0	5.6	54
		-5.0	5.0	51
		-5.4	5.4	55
		gaussian
		output water_TDC_1_root2.cube
end
task dplot
================================================================================

         Total DFT energy =      -72.962801601028
@ Step       Energy      Delta E   Gmax     Grms     Xrms     Xmax   Walltime
@ ---- ---------------- -------- -------- -------- -------- -------- --------
@    0     -72.96280160  0.0D+00  6.44084  2.99635  0.00000  0.00000      1.7
         Total DFT energy =      -74.371859711109
         Total DFT energy =      -74.457133947731
@    1     -74.45713395 -1.5D+00  1.50693  0.90591  0.14588  0.34590      2.7
         Total DFT energy =      -74.920225699622
         Total DFT energy =      -75.084247417561

 Vector    5  Occ=2.000000D+00  E=-1.741852D-01

 Vector    6  Occ=0.000000D+00  E= 4.578322D-01

 Vector    7  Occ=0.000000D+00  E= 6.368423D-01

@    2     -75.08424742 -6.3D-01  0.57318  0.31704  0.17709  0.37554      3.6
         Total DFT energy =      -75.216332010678

 Vector    1  Occ=2.000000D+00  E=-1.884829D+01

 Vector    2  Occ=2.000000D+00  E=-1.029059D+00

 Vector    3  Occ=2.000000D+00  E=-3.874345D-01

 Vector    4  Occ=2.000000D+00  E=-3.119281D-01

 Vector    5  Occ=2.000000D+00  E=-1.630677D-01

 Vector    6  Occ=0.000000D+00  E= 4.137445D-01

 Vector    7  Occ=0.000000D+00  E= 5.290594D-01

         Total DFT energy =      -75.286954207808

 Vector    1  Occ=2.000000D+00  E=-1.885370D+01

 Vector    2  Occ=2.000000D+00  E=-9.665442D-01

 Vector    3  Occ=2.000000D+00  E=-3.779961D-01

 Vector    4  Occ=2.000000D+00  E=-3.037492D-01

 Vector    5  Occ=2.000000D+00  E=-1.554218D-01

 Vector    6  Occ=0.000000D+00  E= 3.574308D-01

 Vector    7  Occ=0.000000D+00  E= 4.359332D-01

@    3     -75.28695421 -2.0D-01  0.12359  0.06360  0.15208  0.31370      4.5
         Total DFT energy =      -75.310956477748

 Vector    1  Occ=2.000000D+00  E=-1.885728D+01

 Vector    2  Occ=2.000000D+00  E=-9.365697D-01

 Vector    3  Occ=2.000000D+00  E=-3.818862D-01

 Vector    4  Occ=2.000000D+00  E=-2.898226D-01

 Vector    5  Occ=2.000000D+00  E=-1.520842D-01

 Vector    6  Occ=0.000000D+00  E= 3.289133D-01

 Vector    7  Occ=0.000000D+00  E= 3.944730D-01

         Total DFT energy =      -75.319109123230

 Vector    1  Occ=2.000000D+00  E=-1.886018D+01

 Vector    2  Occ=2.000000D+00  E=-9.145037D-01

 Vector    3  Occ=2.000000D+00  E=-3.815372D-01

 Vector    4  Occ=2.000000D+00  E=-2.788231D-01

 Vector    5  Occ=2.000000D+00  E=-1.495555D-01

 Vector    6  Occ=0.000000D+00  E= 2.993220D-01

 Vector    7  Occ=0.000000D+00  E= 3.624165D-01

@    4     -75.31910912 -3.2D-02  0.03878  0.01703  0.11752  0.24920      5.4
         Total DFT energy =      -75.320672930351

 Vector    1  Occ=2.000000D+00  E=-1.885967D+01

 Vector    2  Occ=2.000000D+00  E=-9.094973D-01

 Vector    3  Occ=2.000000D+00  E=-3.851979D-01

 Vector    4  Occ=2.000000D+00  E=-2.722780D-01

 Vector    5  Occ=2.000000D+00  E=-1.485056D-01

 Vector    6  Occ=0.000000D+00  E= 2.931656D-01

 Vector    7  Occ=0.000000D+00  E= 3.592274D-01

         Total DFT energy =      -75.321233883311

 Vector    1  Occ=2.000000D+00  E=-1.885896D+01

 Vector    2  Occ=2.000000D+00  E=-9.042843D-01

 Vector    3  Occ=2.000000D+00  E=-3.882758D-01

 Vector    4  Occ=2.000000D+00  E=-2.656454D-01

 Vector    5  Occ=2.000000D+00  E=-1.473214D-01

 Vector    6  Occ=0.000000D+00  E= 2.856323D-01

 Vector    7  Occ=0.000000D+00  E= 3.559323D-01

@    5     -75.32123388 -2.1D-03  0.03871  0.01652  0.04332  0.08755      6.5
         Total DFT energy =      -75.321936517630

 Vector    1  Occ=2.000000D+00  E=-1.885725D+01

 Vector    2  Occ=2.000000D+00  E=-9.062898D-01

 Vector    3  Occ=2.000000D+00  E=-3.925889D-01

 Vector    4  Occ=2.000000D+00  E=-2.627569D-01

 Vector    5  Occ=2.000000D+00  E=-1.469861D-01

 Vector    6  Occ=0.000000D+00  E= 2.904438D-01

 Vector    7  Occ=0.000000D+00  E= 3.638356D-01

         Total DFT energy =      -75.322770719855

 Vector    1  Occ=2.000000D+00  E=-1.885201D+01

 Vector    2  Occ=2.000000D+00  E=-9.118973D-01

 Vector    3  Occ=2.000000D+00  E=-4.050366D-01

 Vector    4  Occ=2.000000D+00  E=-2.540323D-01

 Vector    5  Occ=2.000000D+00  E=-1.459238D-01

 Vector    6  Occ=0.000000D+00  E= 3.038821D-01

 Vector    7  Occ=0.000000D+00  E= 3.872314D-01

@    6     -75.32277072 -1.5D-03  0.00088  0.00048  0.02316  0.05620      8.7
         Total DFT energy =      -75.322774898843

 Vector    1  Occ=2.000000D+00  E=-1.885228D+01

 Vector    2  Occ=2.000000D+00  E=-9.121840D-01

 Vector    3  Occ=2.000000D+00  E=-4.044919D-01

 Vector    4  Occ=2.000000D+00  E=-2.548222D-01

 Vector    5  Occ=2.000000D+00  E=-1.460781D-01

 Vector    6  Occ=0.000000D+00  E= 3.042146D-01

 Vector    7  Occ=0.000000D+00  E= 3.867601D-01

         Total DFT energy =    -75.322774898843
@    7     -75.32277490 -4.2D-06  0.00004  0.00002  0.00194  0.00348      9.3
         Total DFT energy =      -75.322774902696

 Vector    1  Occ=2.000000D+00  E=-1.885229D+01

 Vector    2  Occ=2.000000D+00  E=-9.121884D-01

 Vector    3  Occ=2.000000D+00  E=-4.044699D-01

 Vector    4  Occ=2.000000D+00  E=-2.548501D-01

 Vector    5  Occ=2.000000D+00  E=-1.460851D-01

 Vector    6  Occ=0.000000D+00  E= 3.042109D-01

 Vector    7  Occ=0.000000D+00  E= 3.867287D-01

         Total DFT energy =    -75.322774902696
@    8     -75.32277490 -3.9D-09  0.00000  0.00000  0.00006  0.00009      9.7
@    8     -75.32277490 -3.9D-09  0.00000  0.00000  0.00006  0.00009      9.7

 Output coordinates in a.u. (scale by  1.000000000 to convert to a.u.)

  No.       Tag          Charge          X              Y              Z
 ---- ---------------- ---------- -------------- -------------- --------------
    1 O                    8.0000    -0.35014320     0.00000000    -0.00000006
    2 H                    1.0000     0.93367361    -0.00000000     1.45581920
    3 H                    1.0000     0.93367358    -0.00000000    -1.45581914

         Total DFT energy =      -75.322774902821

                       DFT Final Molecular Orbital Analysis
                       ------------------------------------

 Vector    1  Occ=2.000000D+00  E=-1.885229D+01

 Vector    2  Occ=2.000000D+00  E=-9.121865D-01

 Vector    3  Occ=2.000000D+00  E=-4.044687D-01

 Vector    4  Occ=2.000000D+00  E=-2.548485D-01

 Vector    5  Occ=2.000000D+00  E=-1.460827D-01

 Vector    6  Occ=0.000000D+00  E= 3.042121D-01

 Vector    7  Occ=0.000000D+00  E= 3.867298D-01

     Multipole analysis of the density
     ---------------------------------

     L   x y z        total         alpha         beta         nuclear
     -   - - -        -----         -----         ----         -------
     0   0 0 0     -0.000000     -5.000000     -5.000000     10.000000

     1   1 0 0      0.626994      0.780396      0.780396     -0.933798
     1   0 1 0     -0.000000     -0.000000     -0.000000      0.000000
     1   0 0 1     -0.000000      0.000000      0.000000     -0.000000

     2   2 0 0     -4.047021     -3.385658     -3.385658      2.724295
     2   1 1 0     -0.000000     -0.000000     -0.000000     -0.000000
     2   1 0 1     -0.000000     -0.000000     -0.000000      0.000000
     2   0 2 0     -4.582028     -2.291014     -2.291014      0.000000
     2   0 1 1      0.000000      0.000000      0.000000     -0.000000

  Root   1 singlet a              0.376015916 a.u.               10.2319 eV
     Dipole Oscillator Strength                         0.00168
  Root   2 singlet a              0.433697379 a.u.               11.8015 eV
     Dipole Oscillator Strength                         0.00000
  Root   3 singlet a              0.521135371 a.u.               14.1808 eV
     Dipole Oscillator Strength                         0.08069
  Root   4 singlet a              0.597098416 a.u.               16.2479 eV
     Dipole Oscillator Strength                         0.02343
  Root   5 singlet a              0.721932455 a.u.               19.6448 eV
     Dipole Oscillator Strength                         1.11669
  Root   6 singlet a              0.925774548 a.u.               25.1916 eV
     Dipole Oscillator Strength                         0.73174
  Root   7 singlet a              1.263601263 a.u.               34.3844 eV
     Dipole Oscillator Strength                         0.03537
  Root   8 singlet a              1.310863131 a.u.               35.6704 eV
     Dipole Oscillator Strength                         0.34948
  Root   9 singlet a             19.036329184 a.u.              518.0051 eV
     Dipole Oscillator Strength                         0.06313
  Root  10 singlet a             19.095099250 a.u.              519.6043 eV
     Dipole Oscillator Strength                         0.08260
 Total times  cpu:        7.1s     wall:       11.1s
